# Time   PolyLine_ID   Passnumber   X Y Z R G B A

# Bldg 8

0  0  0  328274.718674  4692089.93417  3.23618751764  0.956862747669  0.552941203117  0.937254905701  1
0  0  0  328274.830026  4692091.01897  1.35054427385  0.956862747669  0.552941203117  0.937254905701  1
0  0  0  328275.160871  4692093.17197  1.35054427385  0.956862747669  0.552941203117  0.937254905701  1
0  0  0  328275.380364  4692094.24016  3.23618751764  0.956862747669  0.552941203117  0.937254905701  1
0  0  0  328275.269012  4692093.15535  5.12183076143  0.956862747669  0.552941203117  0.937254905701  1
0  0  0  328274.938167  4692091.00236  5.12183076143  0.956862747669  0.552941203117  0.937254905701  1
0  0  0  328274.718674  4692089.93417  3.23618751764  0.956862747669  0.552941203117  0.937254905701  1

# Bldg 19

0  1  0  328274.501922  4691984.77849  4.92936247587  0.956862747669  0.552941203117  0.937254905701  1
0  1  0  328274.203653  4691982.73336  1.35187643766  0.956862747669  0.552941203117  0.937254905701  1
0  1  0  328273.733355  4691978.62864  1.35187643766  0.956862747669  0.552941203117  0.937254905701  1
0  1  0  328273.561327  4691976.56904  4.92936247587  0.956862747669  0.552941203117  0.937254905701  1
0  1  0  328273.859596  4691978.61417  8.50684851408  0.956862747669  0.552941203117  0.937254905701  1
0  1  0  328274.329894  4691982.71889  8.50684851408  0.956862747669  0.552941203117  0.937254905701  1
0  1  0  328274.501922  4691984.77849  4.92936247587  0.956862747669  0.552941203117  0.937254905701  1

# Bldg 19

0  2  0  328279.058053  4691957.24411  6.83634165923  0.956862747669  0.552941203117  0.937254905701  1
0  2  0  328277.563799  4691960.27405  0.992443362874  0.956862747669  0.552941203117  0.937254905701  1
0  2  0  328274.847996  4691966.45376  0.992443362874  0.956862747669  0.552941203117  0.937254905701  1
0  2  0  328273.626445  4691969.60354  6.83634165923  0.956862747669  0.552941203117  0.937254905701  1
0  2  0  328275.120698  4691966.57361  12.6802399556  0.956862747669  0.552941203117  0.937254905701  1
0  2  0  328277.836502  4691960.39389  12.6802399556  0.956862747669  0.552941203117  0.937254905701  1
0  2  0  328279.058053  4691957.24411  6.83634165923  0.956862747669  0.552941203117  0.937254905701  1

# Bldg 0

0  3  0  328174.32501  4691944.70758  6.68884290968  0.956862747669  0.552941203117  0.937254905701  1
0  3  0  328174.569943  4691946.02236  4.38426079069  0.956862747669  0.552941203117  0.937254905701  1
0  3  0  328174.826681  4691948.6745  4.38426079069  0.956862747669  0.552941203117  0.937254905701  1
0  3  0  328174.838486  4691950.01186  6.68884290968  0.956862747669  0.552941203117  0.937254905701  1
0  3  0  328174.593553  4691948.69707  8.99342502867  0.956862747669  0.552941203117  0.937254905701  1
0  3  0  328174.336815  4691946.04493  8.99342502867  0.956862747669  0.552941203117  0.937254905701  1
0  3  0  328174.32501  4691944.70758  6.68884290968  0.956862747669  0.552941203117  0.937254905701  1

# Bldg 0

0  4  0  328181.972663  4692032.39025  9.05658745766  0.956862747669 0.552941203117  0.937254905701  1
0  4  0  328181.734174  4692029.63297  4.26302266121  0.956862747669  0.552941203117  0.937254905701  1
0  4  0  328181.265417  4692024.11772  4.26302266121  0.956862747669  0.552941203117  0.937254905701  1
0  4  0  328181.035149  4692021.35975  9.05658745766  0.956862747669  0.552941203117  0.937254905701  1
0  4  0  328181.273639  4692024.11703  13.8501522541  0.956862747669  0.552941203117  0.937254905701  1
0  4  0  328181.742396  4692029.63228  13.8501522541  0.956862747669  0.552941203117  0.937254905701  1
0  4  0  328181.972663  4692032.39025  9.05658745766  0.956862747669  0.552941203117  0.937254905701  1

# Bldg 9

0  5  0  328286.605074  4692085.17496  4.22481244802  0.956862747669  0.552941203117  0.937254905701  1
0  5  0  328286.457654  4692083.74751  1.74315494299  0.956862747669  0.552941203117  0.937254905701  1
0  5  0  328286.301799  4692080.88505  1.74315494299  0.956862747669  0.552941203117  0.937254905701  1
0  5  0  328286.293364  4692079.45004  4.22481244802  0.956862747669  0.552941203117  0.937254905701  1
0  5  0  328286.440783  4692080.87749  6.70646995306  0.956862747669  0.552941203117  0.937254905701  1
0  5  0  328286.596638  4692083.73995  6.70646995306  0.956862747669  0.552941203117  0.937254905701  1
0  5  0  328286.605074  4692085.17496  4.22481244802  0.956862747669  0.552941203117  0.937254905701  1

# Bldg 7

0  6  0  328289.679129  4692131.62005  2.95827493072  0.956862747669  0.552941203117  0.937254905701  1
0  6  0  328287.881202  4692131.94226  -0.198887735605  0.956862747669  0.552941203117  0.937254905701  1
0  6  0  328284.260667  4692132.38471  -0.198887735605  0.956862747669  0.552941203117  0.937254905701  1
0  6  0  328282.438059  4692132.50495  2.95827493072  0.956862747669  0.552941203117  0.937254905701  1
0  6  0  328284.235985  4692132.18274  6.11543759704  0.956862747669  0.552941203117  0.937254905701  1
0  6  0  328287.85652  4692131.74029  6.11543759704  0.956862747669  0.552941203117  0.937254905701  1
0  6  0  328289.679129  4692131.62005  2.95827493072  0.956862747669  0.552941203117  0.937254905701  1

# Bldg 2

0  7  0  328196.813839  4691936.94377  13.3855428696  0.956862747669  0.552941203117  0.937254905701  1
0  7  0  328196.885415  4691935.50676  10.8993811607  0.956862747669  0.552941203117  0.937254905701  1
0  7  0  328196.857291  4691932.63442  10.8993811607  0.956862747669  0.552941203117  0.937254905701  1
0  7  0  328196.75759  4691931.19909  13.3855428696  0.956862747669  0.552941203117  0.937254905701  1
0  7  0  328196.686013  4691932.6361  15.8717045784  0.956862747669  0.552941203117  0.937254905701  1
0  7  0  328196.714138  4691935.50844  15.8717045784  0.956862747669  0.552941203117  0.937254905701  1
0  7  0  328196.813839  4691936.94377  13.3855428696  0.956862747669  0.552941203117  0.937254905701  1

# Bldg 2


0  8  0  328200.804209  4691924.93687  10.8312427657  0.956862747669  0.552941203117  0.937254905701  1
0  8  0  328199.352699  4691926.00489  7.71117779187  0.956862747669  0.552941203117  0.937254905701  1
0  8  0  328196.503847  4691928.21088  7.71117779187  0.956862747669  0.552941203117  0.937254905701  1
0  8  0  328195.106506  4691929.34885  10.8312427657  0.956862747669  0.552941203117  0.937254905701  1
0  8  0  328196.558015  4691928.28083  13.9513077395  0.956862747669  0.552941203117  0.937254905701  1
0  8  0  328199.406867  4691926.07484  13.9513077395  0.956862747669  0.552941203117  0.937254905701  1
0  8  0  328200.804209  4691924.93687  10.8312427657  0.956862747669  0.552941203117  0.937254905701  1

# Bldg 21


0  9  0  328137.635488  4691870.31488  7.28828010559  0.956862747669  0.552941203117  0.937254905701  1
0  9  0  328139.447224  4691871.20469  3.79222331047  0.956862747669  0.552941203117  0.937254905701  1
0  9  0  328143.067985  4691872.98981  3.79222331047  0.956862747669  0.552941203117  0.937254905701  1
0  9  0  328144.877012  4691873.88512  7.28828010559  0.956862747669  0.552941203117  0.937254905701  1
0  9  0  328143.065276  4691872.99531  10.7843369007  0.956862747669  0.552941203117  0.937254905701  1
0  9  0  328139.444515  4691871.21019  10.7843369007  0.956862747669  0.552941203117  0.937254905701  1
0  9  0  328137.635488  4691870.31488  7.28828010559  0.956862747669  0.552941203117  0.937254905701  1

# Bldg 27


0  10  0  328070.060912  4691921.91488  3.81545004249  0.956862747669  0.552941203117  0.937254905701  1
0  10  0  328067.154709  4691926.37975  -5.27599492669  0.956862747669  0.552941203117  0.937254905701  1
0  10  0  328062.77739  4691935.96487  -5.27599492669  0.956862747669  0.552941203117  0.937254905701  1
0  10  0  328061.306275  4691941.08512  3.81545004249  0.956862747669  0.552941203117  0.937254905701  1
0  10  0  328064.212478  4691936.62025  12.9068950117  0.956862747669  0.552941203117  0.937254905701  1
0  10  0  328068.589797  4691927.03513  12.9068950117  0.956862747669  0.552941203117  0.937254905701  1
0  10  0  328070.060912  4691921.91488  3.81545004249  0.956862747669  0.552941203117  0.937254905701  1

# Bldg 27


0  11  0  328070.425392  4691970.84993  6.20259003639  0.956862747669  0.552941203117  0.937254905701  1
0  11  0  328074.012418  4691972.37008  -0.541270208359  0.956862747669  0.552941203117  0.937254905701  1
0  11  0  328081.090152  4691975.62016  -0.541270208359  0.956862747669  0.552941203117  0.937254905701  1
0  11  0  328084.580858  4691977.35007  6.20259003639  0.956862747669  0.552941203117  0.937254905701  1
0  11  0  328080.993831  4691975.82992  12.9464502811  0.956862747669  0.552941203117  0.937254905701  1
0  11  0  328073.916099  4691972.57984  12.9464502811  0.956862747669  0.552941203117  0.937254905701  1
0  11  0  328070.425392  4691970.84993  6.20259003639  0.956862747669  0.552941203117  0.937254905701  1

# Bldg 4

0  12  0  328235.103718  4692025.20851  3.24708570753  0.956862747669  0.552941203117  0.937254905701  1
0  12  0  328234.965814  4692024.17584  1.44258548532  0.956862747669  0.552941203117  0.937254905701  1
0  12  0  328234.692453  4692022.11019  1.44258548532  0.956862747669  0.552941203117  0.937254905701  1
0  12  0  328234.556996  4692021.07721  3.24708570753  0.956862747669  0.552941203117  0.937254905701  1
0  12  0  328234.6949  4692022.10987  5.05158592973  0.956862747669  0.552941203117  0.937254905701  1
0  12  0  328234.968262  4692024.17552  5.05158592973  0.956862747669  0.552941203117  0.937254905701  1
0  12  0  328235.103718  4692025.20851  3.24708570753  0.956862747669  0.552941203117  0.937254905701  1

# Bldg 3

0  13  0  328231.342446  4691996.12826  2.86875002384  0.956862747669  0.552941203117  0.937254905701  1
0  13  0  328231.531423  4691997.08142  1.18943004608  0.956862747669  0.552941203117  0.937254905701  1
0  13  0  328231.798351  4691999.00316  1.18943004608  0.956862747669  0.552941203117  0.937254905701  1
0  13  0  328231.876304  4691999.97174  2.86875002384  0.956862747669  0.552941203117  0.937254905701  1
0  13  0  328231.687327  4691999.01858  4.5480700016  0.956862747669  0.552941203117  0.937254905701  1
0  13  0  328231.420399  4691997.09684  4.5480700016  0.956862747669  0.552941203117  0.937254905701  1
0  13  0  328231.342446  4691996.12826  2.86875002384  0.956862747669  0.552941203117  0.937254905701  1

# Bldg 7


0  14  0  328243.432766  4692159.73668  6.58198750019  0.956862747669  0.552941203117  0.937254905701  1
0  14  0  328243.321829  4692157.849  3.319445014  0.956862747669  0.552941203117  0.937254905701  1
0  14  0  328242.814845  4692154.11232  3.319445014  0.956862747669  0.552941203117  0.937254905701  1
0  14  0  328242.418797  4692152.26332  6.58198750019  0.956862747669  0.552941203117  0.937254905701  1
0  14  0  328242.529733  4692154.151  9.84452998638  0.956862747669  0.552941203117  0.937254905701  1
0  14  0  328243.036717  4692157.88768  9.84452998638  0.956862747669  0.552941203117  0.937254905701  1
0  14  0  328243.432766  4692159.73668  6.58198750019  0.956862747669  0.552941203117  0.937254905701  1

# Bldg 7


0  15  0  328314.760848  4692130.5047  5.19240003824  0.956862747669  0.552941203117  0.937254905701  1
0  15  0  328314.883686  4692131.27933  3.83637613058  0.956862747669  0.552941203117  0.937254905701  1
0  15  0  328315.048619  4692132.83712  3.83637613058  0.956862747669  0.552941203117  0.937254905701  1
0  15  0  328315.090715  4692133.6203  5.19240003824  0.956862747669  0.552941203117  0.937254905701  1
0  15  0  328314.967877  4692132.84567  6.5484239459  0.956862747669  0.552941203117  0.937254905701  1
0  15  0  328314.802943  4692131.28788  6.5484239459  0.956862747669  0.552941203117  0.937254905701  1
0  15  0  328314.760848  4692130.5047  5.19240003824  0.956862747669  0.552941203117  0.937254905701  1

# Bldg 7


0  16  0  328283.417879  4692132.36416  2.62614280837  0.956862747669  0.552941203117  0.937254905701  1
0  16  0  328286.804504  4692131.86852  -3.29877775056  0.956862747669  0.552941203117  0.937254905701  1
0  16  0  328293.60091  4692131.07579  -3.29877775056  0.956862747669  0.552941203117  0.937254905701  1
0  16  0  328297.010692  4692130.7787  2.62614280837  0.956862747669  0.552941203117  0.937254905701  1
0  16  0  328293.624068  4692131.27433  8.5510633673  0.956862747669  0.552941203117  0.937254905701  1
0  16  0  328286.827661  4692132.06707  8.5510633673  0.956862747669  0.552941203117  0.937254905701  1
0  16  0  328283.417879  4692132.36416  2.62614280837  0.956862747669  0.552941203117  0.937254905701  1

# Bldg 9


0  17  0  328292.294124  4692101.07457  2.51234997511  0.956862747669  0.552941203117  0.937254905701  1
0  17  0  328295.496649  4692101.03633  -2.9964944005  0.956862747669  0.552941203117  0.937254905701  1
0  17  0  328301.827525  4692100.31176  -2.9964944005  0.956862747669  0.552941203117  0.937254905701  1
0  17  0  328304.955876  4692099.62543  2.51234997511  0.956862747669  0.552941203117  0.937254905701  1
0  17  0  328301.753351  4692099.66367  8.02119435072  0.956862747669  0.552941203117  0.937254905701  1
0  17  0  328295.422475  4692100.38824  8.02119435072  0.956862747669  0.552941203117  0.937254905701  1
0  17  0  328292.294124  4692101.07457  2.51234997511  0.956862747669  0.552941203117  0.937254905701  1

# Bldg 3 side wall

0  18  0  328210.201966  4692011  4.26561673482  0.956862747669  0.552941203117  0.937254905701  1
0  18  0  328211.301504  4692011  2.36116154989  0.956862747669  0.552941203117  0.937254905701  1
0  18  0  328213.500579  4692011  2.36116154989  0.956862747669  0.552941203117  0.937254905701  1
0  18  0  328214.600117  4692011  4.26561673482  0.956862747669  0.552941203117  0.937254905701  1
0  18  0  328213.500579  4692011  6.17007191976  0.956862747669  0.552941203117  0.937254905701  1
0  18  0  328211.301504  4692011  6.17007191976  0.956862747669  0.552941203117  0.937254905701  1
0  18  0  328210.201966  4692011  4.26561673482  0.956862747669  0.552941203117  0.937254905701  1
