# Time   PolyLine_ID   Passnumber   X Y Z R G B A

# White main parade road border

0 0 0   738238.7   4322641.8   19.1  0 0 1 1
0 0 0   738209.0   4322505.4   19.1  0 0 1 1

# Dark grey square pattern border

0 1 0   738256.4   4322637.5   19.1  1 0 1 1
0 1 0   738229.8   4322516.0   19.1  1 0 1 1
